<?xml version="1.0" encoding="UTF-8"?>

<!-- generated on 11/07/22 22:13:43 by Eclipse SUMO GUI Version 1.8.0
<configuration xmlns:xsi="http://www.w3.org/2001/XMLSchema-instance" xsi:noNamespaceSchemaLocation="http://sumo.dlr.de/xsd/sumoConfiguration.xsd">

    <input>
        <net-file value="network.net.xml"/>
        <route-files value="test_trips.trips.xml"/>
        <additional-files value="detectors.add.xml"/>
    </input>

    <time>
        <begin value="28800"/>
        <end value="31100"/>
    </time>

</configuration>
-->

<detector xmlns:xsi="http://www.w3.org/2001/XMLSchema-instance" xsi:noNamespaceSchemaLocation="http://sumo.dlr.de/xsd/det_e1_file.xsd">
    <interval begin="28800.00" end="29700.00" id="e1Detector_#EdgeID37_0" nVehContrib="0" flow="0.00" occupancy="0.00" speed="-1.00" harmonicMeanSpeed="-1.00" length="-1.00" nVehEntered="0"/>
    <interval begin="28800.00" end="29700.00" id="e1Detector_#EdgeID37_1" nVehContrib="0" flow="0.00" occupancy="0.00" speed="-1.00" harmonicMeanSpeed="-1.00" length="-1.00" nVehEntered="0"/>
    <interval begin="28800.00" end="29700.00" id="e1Detector_#EdgeID37_2" nVehContrib="0" flow="0.00" occupancy="0.00" speed="-1.00" harmonicMeanSpeed="-1.00" length="-1.00" nVehEntered="0"/>
    <interval begin="28800.00" end="29700.00" id="e1Detector_#EdgeID37_3" nVehContrib="0" flow="0.00" occupancy="0.00" speed="-1.00" harmonicMeanSpeed="-1.00" length="-1.00" nVehEntered="0"/>
    <interval begin="28800.00" end="29700.00" id="e1Detector_#EdgeID32_0" nVehContrib="0" flow="0.00" occupancy="0.00" speed="-1.00" harmonicMeanSpeed="-1.00" length="-1.00" nVehEntered="0"/>
    <interval begin="28800.00" end="29700.00" id="e1Detector_#EdgeID32_1" nVehContrib="0" flow="0.00" occupancy="0.00" speed="-1.00" harmonicMeanSpeed="-1.00" length="-1.00" nVehEntered="0"/>
    <interval begin="28800.00" end="29700.00" id="e1Detector_#EdgeID43_0" nVehContrib="2" flow="8.00" occupancy="0.04" speed="26.60" harmonicMeanSpeed="26.54" length="5.00" nVehEntered="2"/>
    <interval begin="28800.00" end="29700.00" id="e1Detector_#EdgeID43_1" nVehContrib="0" flow="0.00" occupancy="0.00" speed="-1.00" harmonicMeanSpeed="-1.00" length="-1.00" nVehEntered="0"/>
    <interval begin="28800.00" end="29700.00" id="e1Detector_#EdgeID64_0" nVehContrib="21" flow="84.00" occupancy="0.46" speed="25.34" harmonicMeanSpeed="25.12" length="5.00" nVehEntered="21"/>
    <interval begin="28800.00" end="29700.00" id="e1Detector_#EdgeID11_0" nVehContrib="1" flow="4.00" occupancy="0.02" speed="24.23" harmonicMeanSpeed="24.23" length="5.00" nVehEntered="1"/>
    <interval begin="28800.00" end="29700.00" id="e1Detector_#EdgeID11_1" nVehContrib="0" flow="0.00" occupancy="0.00" speed="-1.00" harmonicMeanSpeed="-1.00" length="-1.00" nVehEntered="0"/>
    <interval begin="28800.00" end="29700.00" id="e1Detector_#EdgeID11_2" nVehContrib="1" flow="4.00" occupancy="0.02" speed="30.56" harmonicMeanSpeed="30.56" length="5.00" nVehEntered="1"/>
    <interval begin="28800.00" end="29700.00" id="e1Detector_#EdgeID27_0" nVehContrib="2" flow="8.00" occupancy="0.04" speed="26.87" harmonicMeanSpeed="26.87" length="5.00" nVehEntered="2"/>
    <interval begin="28800.00" end="29700.00" id="e1Detector_#EdgeID27_1" nVehContrib="1" flow="4.00" occupancy="0.02" speed="26.34" harmonicMeanSpeed="26.34" length="5.00" nVehEntered="1"/>
    <interval begin="28800.00" end="29700.00" id="e1Detector_#EdgeID59_0" nVehContrib="0" flow="0.00" occupancy="0.00" speed="-1.00" harmonicMeanSpeed="-1.00" length="-1.00" nVehEntered="0"/>
    <interval begin="28800.00" end="29700.00" id="e1Detector_#EdgeID12_0" nVehContrib="0" flow="0.00" occupancy="0.00" speed="-1.00" harmonicMeanSpeed="-1.00" length="-1.00" nVehEntered="0"/>
    <interval begin="28800.00" end="29700.00" id="e1Detector_#EdgeID7_0" nVehContrib="0" flow="0.00" occupancy="0.00" speed="-1.00" harmonicMeanSpeed="-1.00" length="-1.00" nVehEntered="0"/>
    <interval begin="28800.00" end="29700.00" id="e1Detector_#EdgeID7_1" nVehContrib="0" flow="0.00" occupancy="0.00" speed="-1.00" harmonicMeanSpeed="-1.00" length="-1.00" nVehEntered="0"/>
    <interval begin="28800.00" end="29700.00" id="e1Detector_#EdgeID7_2" nVehContrib="2" flow="8.00" occupancy="0.04" speed="25.60" harmonicMeanSpeed="25.58" length="5.00" nVehEntered="2"/>
    <interval begin="28800.00" end="29700.00" id="e1Detector_#EdgeID7_3" nVehContrib="0" flow="0.00" occupancy="0.00" speed="-1.00" harmonicMeanSpeed="-1.00" length="-1.00" nVehEntered="0"/>
    <interval begin="28800.00" end="29700.00" id="e1Detector_#EdgeID61_0" nVehContrib="0" flow="0.00" occupancy="0.00" speed="-1.00" harmonicMeanSpeed="-1.00" length="-1.00" nVehEntered="0"/>
    <interval begin="28800.00" end="29700.00" id="e1Detector_#EdgeID16_0" nVehContrib="8" flow="32.00" occupancy="0.18" speed="25.51" harmonicMeanSpeed="25.34" length="5.00" nVehEntered="8"/>
    <interval begin="28800.00" end="29700.00" id="e1Detector_#EdgeID69_0" nVehContrib="22" flow="88.00" occupancy="0.47" speed="26.28" harmonicMeanSpeed="25.99" length="5.00" nVehEntered="22"/>
    <interval begin="28800.00" end="29700.00" id="e1Detector_#EdgeID1_0" nVehContrib="0" flow="0.00" occupancy="0.00" speed="-1.00" harmonicMeanSpeed="-1.00" length="-1.00" nVehEntered="0"/>
    <interval begin="28800.00" end="29700.00" id="e1Detector_#EdgeID1_1" nVehContrib="0" flow="0.00" occupancy="0.00" speed="-1.00" harmonicMeanSpeed="-1.00" length="-1.00" nVehEntered="0"/>
    <interval begin="28800.00" end="29700.00" id="e1Detector_#EdgeID1_2" nVehContrib="0" flow="0.00" occupancy="0.00" speed="-1.00" harmonicMeanSpeed="-1.00" length="-1.00" nVehEntered="0"/>
    <interval begin="28800.00" end="29700.00" id="e1Detector_#EdgeID1_3" nVehContrib="0" flow="0.00" occupancy="0.00" speed="-1.00" harmonicMeanSpeed="-1.00" length="-1.00" nVehEntered="0"/>
    <interval begin="28800.00" end="29700.00" id="e1Detector_#EdgeID24_0" nVehContrib="0" flow="0.00" occupancy="0.00" speed="-1.00" harmonicMeanSpeed="-1.00" length="-1.00" nVehEntered="0"/>
    <interval begin="28800.00" end="29700.00" id="e1Detector_#EdgeID28_0" nVehContrib="4" flow="16.00" occupancy="0.09" speed="25.96" harmonicMeanSpeed="25.76" length="5.00" nVehEntered="4"/>
    <interval begin="28800.00" end="29700.00" id="e1Detector_#EdgeID28_1" nVehContrib="1" flow="4.00" occupancy="0.02" speed="25.47" harmonicMeanSpeed="25.47" length="5.00" nVehEntered="1"/>
    <interval begin="28800.00" end="29700.00" id="e1Detector_#EdgeID75_0" nVehContrib="8" flow="32.00" occupancy="0.18" speed="24.24" harmonicMeanSpeed="24.12" length="5.00" nVehEntered="8"/>
    <interval begin="28800.00" end="29700.00" id="e1Detector_#EdgeID66_0" nVehContrib="23" flow="92.00" occupancy="0.51" speed="25.45" harmonicMeanSpeed="25.17" length="5.00" nVehEntered="23"/>
    <interval begin="28800.00" end="29700.00" id="e1Detector_#EdgeID39_0" nVehContrib="21" flow="84.00" occupancy="0.47" speed="24.97" harmonicMeanSpeed="24.81" length="5.00" nVehEntered="21"/>
    <interval begin="28800.00" end="29700.00" id="e1Detector_#EdgeID63_0" nVehContrib="7" flow="28.00" occupancy="0.14" speed="27.11" harmonicMeanSpeed="27.08" length="5.00" nVehEntered="7"/>
    <interval begin="28800.00" end="29700.00" id="e1Detector_#EdgeID10_0" nVehContrib="7" flow="28.00" occupancy="0.15" speed="25.61" harmonicMeanSpeed="25.50" length="5.00" nVehEntered="7"/>
    <interval begin="28800.00" end="29700.00" id="e1Detector_#EdgeID8_0" nVehContrib="0" flow="0.00" occupancy="0.00" speed="-1.00" harmonicMeanSpeed="-1.00" length="-1.00" nVehEntered="0"/>
    <interval begin="28800.00" end="29700.00" id="e1Detector_#EdgeID8_1" nVehContrib="3" flow="12.00" occupancy="0.06" speed="26.12" harmonicMeanSpeed="25.97" length="5.00" nVehEntered="3"/>
    <interval begin="28800.00" end="29700.00" id="e1Detector_#EdgeID8_2" nVehContrib="11" flow="44.00" occupancy="0.22" speed="27.70" harmonicMeanSpeed="27.45" length="5.00" nVehEntered="11"/>
    <interval begin="28800.00" end="29700.00" id="e1Detector_#EdgeID53_0" nVehContrib="25" flow="100.00" occupancy="0.54" speed="25.90" harmonicMeanSpeed="25.75" length="5.00" nVehEntered="25"/>
    <interval begin="28800.00" end="29700.00" id="e1Detector_#EdgeID4_0" nVehContrib="5" flow="20.00" occupancy="0.10" speed="26.83" harmonicMeanSpeed="26.52" length="5.00" nVehEntered="5"/>
    <interval begin="28800.00" end="29700.00" id="e1Detector_#EdgeID74_0" nVehContrib="5" flow="20.00" occupancy="0.11" speed="25.86" harmonicMeanSpeed="25.72" length="5.00" nVehEntered="5"/>
    <interval begin="28800.00" end="29700.00" id="e1Detector_#EdgeID29_0" nVehContrib="0" flow="0.00" occupancy="0.00" speed="-1.00" harmonicMeanSpeed="-1.00" length="-1.00" nVehEntered="0"/>
    <interval begin="28800.00" end="29700.00" id="e1Detector_#EdgeID49_0" nVehContrib="7" flow="28.00" occupancy="0.16" speed="25.27" harmonicMeanSpeed="25.09" length="5.00" nVehEntered="7"/>
    <interval begin="28800.00" end="29700.00" id="e1Detector_#EdgeID46_0" nVehContrib="8" flow="32.00" occupancy="0.17" speed="25.60" harmonicMeanSpeed="25.49" length="5.00" nVehEntered="8"/>
    <interval begin="28800.00" end="29700.00" id="e1Detector_#EdgeID46_1" nVehContrib="4" flow="16.00" occupancy="0.08" speed="26.64" harmonicMeanSpeed="26.49" length="5.00" nVehEntered="4"/>
    <interval begin="28800.00" end="29700.00" id="e1Detector_#EdgeID40_0" nVehContrib="2" flow="8.00" occupancy="0.05" speed="23.53" harmonicMeanSpeed="23.52" length="5.00" nVehEntered="2"/>
    <interval begin="28800.00" end="29700.00" id="e1Detector_#EdgeID13_0" nVehContrib="3" flow="12.00" occupancy="0.06" speed="27.58" harmonicMeanSpeed="27.42" length="5.00" nVehEntered="3"/>
    <interval begin="28800.00" end="29700.00" id="e1Detector_#EdgeID13_1" nVehContrib="4" flow="16.00" occupancy="0.08" speed="26.64" harmonicMeanSpeed="26.63" length="5.00" nVehEntered="4"/>
    <interval begin="28800.00" end="29700.00" id="e1Detector_#EdgeID33_0" nVehContrib="1" flow="4.00" occupancy="0.02" speed="26.06" harmonicMeanSpeed="26.06" length="5.00" nVehEntered="1"/>
    <interval begin="28800.00" end="29700.00" id="e1Detector_#EdgeID25_0" nVehContrib="3" flow="12.00" occupancy="0.06" speed="27.66" harmonicMeanSpeed="27.65" length="5.00" nVehEntered="3"/>
    <interval begin="28800.00" end="29700.00" id="e1Detector_#EdgeID25_1" nVehContrib="3" flow="12.00" occupancy="0.06" speed="27.97" harmonicMeanSpeed="27.81" length="5.00" nVehEntered="3"/>
    <interval begin="28800.00" end="29700.00" id="e1Detector_#EdgeID62_0" nVehContrib="5" flow="20.00" occupancy="0.12" speed="22.54" harmonicMeanSpeed="22.37" length="5.00" nVehEntered="5"/>
    <interval begin="28800.00" end="29700.00" id="e1Detector_#EdgeID3_0" nVehContrib="0" flow="0.00" occupancy="0.00" speed="-1.00" harmonicMeanSpeed="-1.00" length="-1.00" nVehEntered="0"/>
    <interval begin="28800.00" end="29700.00" id="e1Detector_#EdgeID3_1" nVehContrib="0" flow="0.00" occupancy="0.00" speed="-1.00" harmonicMeanSpeed="-1.00" length="-1.00" nVehEntered="0"/>
    <interval begin="28800.00" end="29700.00" id="e1Detector_#EdgeID3_2" nVehContrib="0" flow="0.00" occupancy="0.00" speed="-1.00" harmonicMeanSpeed="-1.00" length="-1.00" nVehEntered="0"/>
    <interval begin="28800.00" end="29700.00" id="e1Detector_#EdgeID3_3" nVehContrib="0" flow="0.00" occupancy="0.00" speed="-1.00" harmonicMeanSpeed="-1.00" length="-1.00" nVehEntered="0"/>
    <interval begin="28800.00" end="29700.00" id="e1Detector_#EdgeID56_0" nVehContrib="1" flow="4.00" occupancy="0.02" speed="28.11" harmonicMeanSpeed="28.11" length="5.00" nVehEntered="1"/>
    <interval begin="28800.00" end="29700.00" id="e1Detector_#EdgeID56_1" nVehContrib="0" flow="0.00" occupancy="0.00" speed="-1.00" harmonicMeanSpeed="-1.00" length="-1.00" nVehEntered="0"/>
    <interval begin="28800.00" end="29700.00" id="e1Detector_#EdgeID56_2" nVehContrib="0" flow="0.00" occupancy="0.00" speed="-1.00" harmonicMeanSpeed="-1.00" length="-1.00" nVehEntered="0"/>
    <interval begin="28800.00" end="29700.00" id="e1Detector_#EdgeID56_3" nVehContrib="0" flow="0.00" occupancy="0.00" speed="-1.00" harmonicMeanSpeed="-1.00" length="-1.00" nVehEntered="0"/>
    <interval begin="28800.00" end="29700.00" id="e1Detector_#EdgeID72_0" nVehContrib="25" flow="100.00" occupancy="0.55" speed="25.55" harmonicMeanSpeed="25.33" length="5.00" nVehEntered="25"/>
    <interval begin="28800.00" end="29700.00" id="e1Detector_#EdgeID36_0" nVehContrib="2" flow="8.00" occupancy="0.04" speed="30.25" harmonicMeanSpeed="30.21" length="5.00" nVehEntered="2"/>
    <interval begin="28800.00" end="29700.00" id="e1Detector_#EdgeID54_0" nVehContrib="5" flow="20.00" occupancy="0.10" speed="26.96" harmonicMeanSpeed="26.82" length="5.00" nVehEntered="5"/>
    <interval begin="28800.00" end="29700.00" id="e1Detector_#EdgeID54_1" nVehContrib="0" flow="0.00" occupancy="0.00" speed="-1.00" harmonicMeanSpeed="-1.00" length="-1.00" nVehEntered="0"/>
    <interval begin="28800.00" end="29700.00" id="e1Detector_#EdgeID54_2" nVehContrib="0" flow="0.00" occupancy="0.00" speed="-1.00" harmonicMeanSpeed="-1.00" length="-1.00" nVehEntered="0"/>
    <interval begin="28800.00" end="29700.00" id="e1Detector_#EdgeID54_3" nVehContrib="2" flow="8.00" occupancy="0.04" speed="29.18" harmonicMeanSpeed="29.17" length="5.00" nVehEntered="2"/>
    <interval begin="28800.00" end="29700.00" id="e1Detector_#EdgeID44_0" nVehContrib="5" flow="20.00" occupancy="0.10" speed="27.87" harmonicMeanSpeed="27.82" length="5.00" nVehEntered="5"/>
    <interval begin="28800.00" end="29700.00" id="e1Detector_#EdgeID58_0" nVehContrib="10" flow="40.00" occupancy="0.21" speed="27.19" harmonicMeanSpeed="26.95" length="5.00" nVehEntered="10"/>
    <interval begin="29700.00" end="30600.00" id="e1Detector_#EdgeID37_0" nVehContrib="0" flow="0.00" occupancy="0.00" speed="-1.00" harmonicMeanSpeed="-1.00" length="-1.00" nVehEntered="0"/>
    <interval begin="29700.00" end="30600.00" id="e1Detector_#EdgeID37_1" nVehContrib="1" flow="4.00" occupancy="0.02" speed="27.63" harmonicMeanSpeed="27.63" length="5.00" nVehEntered="1"/>
    <interval begin="29700.00" end="30600.00" id="e1Detector_#EdgeID37_2" nVehContrib="4" flow="16.00" occupancy="0.08" speed="26.50" harmonicMeanSpeed="26.41" length="5.00" nVehEntered="4"/>
    <interval begin="29700.00" end="30600.00" id="e1Detector_#EdgeID37_3" nVehContrib="0" flow="0.00" occupancy="0.00" speed="-1.00" harmonicMeanSpeed="-1.00" length="-1.00" nVehEntered="0"/>
    <interval begin="29700.00" end="30600.00" id="e1Detector_#EdgeID32_0" nVehContrib="6" flow="24.00" occupancy="0.13" speed="26.42" harmonicMeanSpeed="26.10" length="5.00" nVehEntered="6"/>
    <interval begin="29700.00" end="30600.00" id="e1Detector_#EdgeID32_1" nVehContrib="9" flow="36.00" occupancy="0.22" speed="23.45" harmonicMeanSpeed="23.25" length="5.00" nVehEntered="9"/>
    <interval begin="29700.00" end="30600.00" id="e1Detector_#EdgeID43_0" nVehContrib="8" flow="32.00" occupancy="0.16" speed="27.34" harmonicMeanSpeed="27.04" length="5.00" nVehEntered="8"/>
    <interval begin="29700.00" end="30600.00" id="e1Detector_#EdgeID43_1" nVehContrib="8" flow="32.00" occupancy="0.17" speed="26.77" harmonicMeanSpeed="26.67" length="5.00" nVehEntered="8"/>
    <interval begin="29700.00" end="30600.00" id="e1Detector_#EdgeID64_0" nVehContrib="41" flow="164.00" occupancy="0.96" speed="24.00" harmonicMeanSpeed="23.72" length="5.00" nVehEntered="41"/>
    <interval begin="29700.00" end="30600.00" id="e1Detector_#EdgeID11_0" nVehContrib="4" flow="16.00" occupancy="0.08" speed="28.88" harmonicMeanSpeed="28.82" length="5.00" nVehEntered="4"/>
    <interval begin="29700.00" end="30600.00" id="e1Detector_#EdgeID11_1" nVehContrib="1" flow="4.00" occupancy="0.02" speed="27.14" harmonicMeanSpeed="27.14" length="5.00" nVehEntered="1"/>
    <interval begin="29700.00" end="30600.00" id="e1Detector_#EdgeID11_2" nVehContrib="13" flow="52.00" occupancy="0.27" speed="26.53" harmonicMeanSpeed="26.33" length="5.00" nVehEntered="13"/>
    <interval begin="29700.00" end="30600.00" id="e1Detector_#EdgeID27_0" nVehContrib="11" flow="44.00" occupancy="0.23" speed="26.83" harmonicMeanSpeed="26.69" length="5.00" nVehEntered="11"/>
    <interval begin="29700.00" end="30600.00" id="e1Detector_#EdgeID27_1" nVehContrib="7" flow="28.00" occupancy="0.15" speed="26.47" harmonicMeanSpeed="26.40" length="5.00" nVehEntered="7"/>
    <interval begin="29700.00" end="30600.00" id="e1Detector_#EdgeID59_0" nVehContrib="0" flow="0.00" occupancy="0.00" speed="-1.00" harmonicMeanSpeed="-1.00" length="-1.00" nVehEntered="0"/>
    <interval begin="29700.00" end="30600.00" id="e1Detector_#EdgeID12_0" nVehContrib="9" flow="36.00" occupancy="0.19" speed="27.00" harmonicMeanSpeed="26.82" length="5.00" nVehEntered="9"/>
    <interval begin="29700.00" end="30600.00" id="e1Detector_#EdgeID7_0" nVehContrib="0" flow="0.00" occupancy="0.00" speed="-1.00" harmonicMeanSpeed="-1.00" length="-1.00" nVehEntered="0"/>
    <interval begin="29700.00" end="30600.00" id="e1Detector_#EdgeID7_1" nVehContrib="0" flow="0.00" occupancy="0.00" speed="-1.00" harmonicMeanSpeed="-1.00" length="-1.00" nVehEntered="0"/>
    <interval begin="29700.00" end="30600.00" id="e1Detector_#EdgeID7_2" nVehContrib="2" flow="8.00" occupancy="0.04" speed="26.91" harmonicMeanSpeed="26.74" length="5.00" nVehEntered="2"/>
    <interval begin="29700.00" end="30600.00" id="e1Detector_#EdgeID7_3" nVehContrib="3" flow="12.00" occupancy="0.06" speed="26.76" harmonicMeanSpeed="26.60" length="5.00" nVehEntered="3"/>
    <interval begin="29700.00" end="30600.00" id="e1Detector_#EdgeID61_0" nVehContrib="14" flow="56.00" occupancy="0.29" speed="26.58" harmonicMeanSpeed="26.44" length="5.00" nVehEntered="14"/>
    <interval begin="29700.00" end="30600.00" id="e1Detector_#EdgeID16_0" nVehContrib="22" flow="88.00" occupancy="0.49" speed="25.08" harmonicMeanSpeed="24.86" length="5.00" nVehEntered="22"/>
    <interval begin="29700.00" end="30600.00" id="e1Detector_#EdgeID69_0" nVehContrib="70" flow="280.00" occupancy="1.68" speed="23.45" harmonicMeanSpeed="23.09" length="5.00" nVehEntered="70"/>
    <interval begin="29700.00" end="30600.00" id="e1Detector_#EdgeID1_0" nVehContrib="0" flow="0.00" occupancy="0.00" speed="-1.00" harmonicMeanSpeed="-1.00" length="-1.00" nVehEntered="0"/>
    <interval begin="29700.00" end="30600.00" id="e1Detector_#EdgeID1_1" nVehContrib="0" flow="0.00" occupancy="0.00" speed="-1.00" harmonicMeanSpeed="-1.00" length="-1.00" nVehEntered="0"/>
    <interval begin="29700.00" end="30600.00" id="e1Detector_#EdgeID1_2" nVehContrib="0" flow="0.00" occupancy="0.00" speed="-1.00" harmonicMeanSpeed="-1.00" length="-1.00" nVehEntered="0"/>
    <interval begin="29700.00" end="30600.00" id="e1Detector_#EdgeID1_3" nVehContrib="0" flow="0.00" occupancy="0.00" speed="-1.00" harmonicMeanSpeed="-1.00" length="-1.00" nVehEntered="0"/>
    <interval begin="29700.00" end="30600.00" id="e1Detector_#EdgeID24_0" nVehContrib="7" flow="28.00" occupancy="0.15" speed="27.09" harmonicMeanSpeed="26.77" length="5.00" nVehEntered="7"/>
    <interval begin="29700.00" end="30600.00" id="e1Detector_#EdgeID28_0" nVehContrib="18" flow="72.00" occupancy="0.41" speed="24.97" harmonicMeanSpeed="24.56" length="5.00" nVehEntered="18"/>
    <interval begin="29700.00" end="30600.00" id="e1Detector_#EdgeID28_1" nVehContrib="12" flow="48.00" occupancy="0.28" speed="23.81" harmonicMeanSpeed="23.55" length="5.00" nVehEntered="12"/>
    <interval begin="29700.00" end="30600.00" id="e1Detector_#EdgeID75_0" nVehContrib="31" flow="124.00" occupancy="0.71" speed="24.57" harmonicMeanSpeed="24.40" length="5.00" nVehEntered="31"/>
    <interval begin="29700.00" end="30600.00" id="e1Detector_#EdgeID66_0" nVehContrib="49" flow="196.00" occupancy="1.14" speed="24.05" harmonicMeanSpeed="23.95" length="5.00" nVehEntered="49"/>
    <interval begin="29700.00" end="30600.00" id="e1Detector_#EdgeID39_0" nVehContrib="37" flow="148.00" occupancy="0.84" speed="24.74" harmonicMeanSpeed="24.39" length="5.00" nVehEntered="37"/>
    <interval begin="29700.00" end="30600.00" id="e1Detector_#EdgeID63_0" nVehContrib="20" flow="80.00" occupancy="0.47" speed="24.45" harmonicMeanSpeed="24.06" length="5.00" nVehEntered="21"/>
    <interval begin="29700.00" end="30600.00" id="e1Detector_#EdgeID10_0" nVehContrib="13" flow="52.00" occupancy="0.28" speed="26.47" harmonicMeanSpeed="26.26" length="5.00" nVehEntered="13"/>
    <interval begin="29700.00" end="30600.00" id="e1Detector_#EdgeID8_0" nVehContrib="6" flow="24.00" occupancy="0.12" speed="26.94" harmonicMeanSpeed="26.72" length="5.00" nVehEntered="6"/>
    <interval begin="29700.00" end="30600.00" id="e1Detector_#EdgeID8_1" nVehContrib="7" flow="28.00" occupancy="0.15" speed="26.98" harmonicMeanSpeed="26.77" length="5.00" nVehEntered="7"/>
    <interval begin="29700.00" end="30600.00" id="e1Detector_#EdgeID8_2" nVehContrib="7" flow="28.00" occupancy="0.15" speed="26.88" harmonicMeanSpeed="26.52" length="5.00" nVehEntered="7"/>
    <interval begin="29700.00" end="30600.00" id="e1Detector_#EdgeID53_0" nVehContrib="49" flow="196.00" occupancy="1.12" speed="24.67" harmonicMeanSpeed="24.35" length="5.00" nVehEntered="49"/>
    <interval begin="29700.00" end="30600.00" id="e1Detector_#EdgeID4_0" nVehContrib="11" flow="44.00" occupancy="0.24" speed="25.09" harmonicMeanSpeed="24.96" length="5.00" nVehEntered="11"/>
    <interval begin="29700.00" end="30600.00" id="e1Detector_#EdgeID74_0" nVehContrib="23" flow="92.00" occupancy="0.51" speed="25.17" harmonicMeanSpeed="24.86" length="5.00" nVehEntered="23"/>
    <interval begin="29700.00" end="30600.00" id="e1Detector_#EdgeID29_0" nVehContrib="13" flow="52.00" occupancy="0.27" speed="27.11" harmonicMeanSpeed="26.92" length="5.00" nVehEntered="13"/>
    <interval begin="29700.00" end="30600.00" id="e1Detector_#EdgeID49_0" nVehContrib="22" flow="88.00" occupancy="0.46" speed="26.70" harmonicMeanSpeed="26.36" length="5.00" nVehEntered="22"/>
    <interval begin="29700.00" end="30600.00" id="e1Detector_#EdgeID46_0" nVehContrib="31" flow="124.00" occupancy="0.71" speed="24.45" harmonicMeanSpeed="24.11" length="5.00" nVehEntered="31"/>
    <interval begin="29700.00" end="30600.00" id="e1Detector_#EdgeID46_1" nVehContrib="18" flow="72.00" occupancy="0.39" speed="25.96" harmonicMeanSpeed="25.69" length="5.00" nVehEntered="18"/>
    <interval begin="29700.00" end="30600.00" id="e1Detector_#EdgeID40_0" nVehContrib="12" flow="48.00" occupancy="0.28" speed="24.36" harmonicMeanSpeed="24.21" length="5.00" nVehEntered="12"/>
    <interval begin="29700.00" end="30600.00" id="e1Detector_#EdgeID13_0" nVehContrib="15" flow="60.00" occupancy="0.34" speed="24.44" harmonicMeanSpeed="24.18" length="5.00" nVehEntered="15"/>
    <interval begin="29700.00" end="30600.00" id="e1Detector_#EdgeID13_1" nVehContrib="1" flow="4.00" occupancy="0.02" speed="32.69" harmonicMeanSpeed="32.69" length="5.00" nVehEntered="1"/>
    <interval begin="29700.00" end="30600.00" id="e1Detector_#EdgeID33_0" nVehContrib="5" flow="20.00" occupancy="0.10" speed="27.81" harmonicMeanSpeed="27.55" length="5.00" nVehEntered="5"/>
    <interval begin="29700.00" end="30600.00" id="e1Detector_#EdgeID25_0" nVehContrib="15" flow="60.00" occupancy="0.33" speed="25.42" harmonicMeanSpeed="25.06" length="5.00" nVehEntered="15"/>
    <interval begin="29700.00" end="30600.00" id="e1Detector_#EdgeID25_1" nVehContrib="9" flow="36.00" occupancy="0.20" speed="25.19" harmonicMeanSpeed="25.07" length="5.00" nVehEntered="9"/>
    <interval begin="29700.00" end="30600.00" id="e1Detector_#EdgeID62_0" nVehContrib="15" flow="60.00" occupancy="0.35" speed="23.92" harmonicMeanSpeed="23.63" length="5.00" nVehEntered="15"/>
    <interval begin="29700.00" end="30600.00" id="e1Detector_#EdgeID3_0" nVehContrib="0" flow="0.00" occupancy="0.00" speed="-1.00" harmonicMeanSpeed="-1.00" length="-1.00" nVehEntered="0"/>
    <interval begin="29700.00" end="30600.00" id="e1Detector_#EdgeID3_1" nVehContrib="0" flow="0.00" occupancy="0.00" speed="-1.00" harmonicMeanSpeed="-1.00" length="-1.00" nVehEntered="0"/>
    <interval begin="29700.00" end="30600.00" id="e1Detector_#EdgeID3_2" nVehContrib="0" flow="0.00" occupancy="0.00" speed="-1.00" harmonicMeanSpeed="-1.00" length="-1.00" nVehEntered="0"/>
    <interval begin="29700.00" end="30600.00" id="e1Detector_#EdgeID3_3" nVehContrib="0" flow="0.00" occupancy="0.00" speed="-1.00" harmonicMeanSpeed="-1.00" length="-1.00" nVehEntered="0"/>
    <interval begin="29700.00" end="30600.00" id="e1Detector_#EdgeID56_0" nVehContrib="5" flow="20.00" occupancy="0.11" speed="26.35" harmonicMeanSpeed="26.34" length="5.00" nVehEntered="5"/>
    <interval begin="29700.00" end="30600.00" id="e1Detector_#EdgeID56_1" nVehContrib="3" flow="12.00" occupancy="0.06" speed="25.90" harmonicMeanSpeed="25.79" length="5.00" nVehEntered="3"/>
    <interval begin="29700.00" end="30600.00" id="e1Detector_#EdgeID56_2" nVehContrib="5" flow="20.00" occupancy="0.10" speed="26.67" harmonicMeanSpeed="26.55" length="5.00" nVehEntered="5"/>
    <interval begin="29700.00" end="30600.00" id="e1Detector_#EdgeID56_3" nVehContrib="0" flow="0.00" occupancy="0.00" speed="-1.00" harmonicMeanSpeed="-1.00" length="-1.00" nVehEntered="0"/>
    <interval begin="29700.00" end="30600.00" id="e1Detector_#EdgeID72_0" nVehContrib="71" flow="284.00" occupancy="1.59" speed="24.92" harmonicMeanSpeed="24.79" length="5.00" nVehEntered="71"/>
    <interval begin="29700.00" end="30600.00" id="e1Detector_#EdgeID36_0" nVehContrib="24" flow="96.00" occupancy="0.54" speed="25.08" harmonicMeanSpeed="24.71" length="5.00" nVehEntered="24"/>
    <interval begin="29700.00" end="30600.00" id="e1Detector_#EdgeID54_0" nVehContrib="15" flow="60.00" occupancy="0.30" speed="27.61" harmonicMeanSpeed="27.48" length="5.00" nVehEntered="15"/>
    <interval begin="29700.00" end="30600.00" id="e1Detector_#EdgeID54_1" nVehContrib="0" flow="0.00" occupancy="0.00" speed="-1.00" harmonicMeanSpeed="-1.00" length="-1.00" nVehEntered="0"/>
    <interval begin="29700.00" end="30600.00" id="e1Detector_#EdgeID54_2" nVehContrib="0" flow="0.00" occupancy="0.00" speed="-1.00" harmonicMeanSpeed="-1.00" length="-1.00" nVehEntered="0"/>
    <interval begin="29700.00" end="30600.00" id="e1Detector_#EdgeID54_3" nVehContrib="7" flow="28.00" occupancy="0.15" speed="26.14" harmonicMeanSpeed="25.94" length="5.00" nVehEntered="7"/>
    <interval begin="29700.00" end="30600.00" id="e1Detector_#EdgeID44_0" nVehContrib="13" flow="52.00" occupancy="0.27" speed="26.52" harmonicMeanSpeed="26.48" length="5.00" nVehEntered="13"/>
    <interval begin="29700.00" end="30600.00" id="e1Detector_#EdgeID58_0" nVehContrib="52" flow="208.00" occupancy="1.22" speed="23.87" harmonicMeanSpeed="23.65" length="5.00" nVehEntered="52"/>
    <interval begin="30600.00" end="31100.00" id="e1Detector_#EdgeID37_0" nVehContrib="0" flow="0.00" occupancy="0.00" speed="-1.00" harmonicMeanSpeed="-1.00" length="-1.00" nVehEntered="0"/>
    <interval begin="30600.00" end="31100.00" id="e1Detector_#EdgeID37_1" nVehContrib="3" flow="21.60" occupancy="0.10" speed="29.15" harmonicMeanSpeed="28.96" length="5.00" nVehEntered="3"/>
    <interval begin="30600.00" end="31100.00" id="e1Detector_#EdgeID37_2" nVehContrib="2" flow="14.40" occupancy="0.08" speed="25.04" harmonicMeanSpeed="25.04" length="5.00" nVehEntered="2"/>
    <interval begin="30600.00" end="31100.00" id="e1Detector_#EdgeID37_3" nVehContrib="0" flow="0.00" occupancy="0.00" speed="-1.00" harmonicMeanSpeed="-1.00" length="-1.00" nVehEntered="0"/>
    <interval begin="30600.00" end="31100.00" id="e1Detector_#EdgeID32_0" nVehContrib="4" flow="28.80" occupancy="0.15" speed="27.57" harmonicMeanSpeed="27.41" length="5.00" nVehEntered="4"/>
    <interval begin="30600.00" end="31100.00" id="e1Detector_#EdgeID32_1" nVehContrib="5" flow="36.00" occupancy="0.21" speed="24.26" harmonicMeanSpeed="24.23" length="5.00" nVehEntered="5"/>
    <interval begin="30600.00" end="31100.00" id="e1Detector_#EdgeID43_0" nVehContrib="3" flow="21.60" occupancy="0.12" speed="26.08" harmonicMeanSpeed="26.00" length="5.00" nVehEntered="3"/>
    <interval begin="30600.00" end="31100.00" id="e1Detector_#EdgeID43_1" nVehContrib="4" flow="28.80" occupancy="0.16" speed="25.57" harmonicMeanSpeed="25.37" length="5.00" nVehEntered="4"/>
    <interval begin="30600.00" end="31100.00" id="e1Detector_#EdgeID64_0" nVehContrib="24" flow="172.80" occupancy="0.95" speed="25.41" harmonicMeanSpeed="25.33" length="5.00" nVehEntered="24"/>
    <interval begin="30600.00" end="31100.00" id="e1Detector_#EdgeID11_0" nVehContrib="3" flow="21.60" occupancy="0.12" speed="25.55" harmonicMeanSpeed="25.45" length="5.00" nVehEntered="3"/>
    <interval begin="30600.00" end="31100.00" id="e1Detector_#EdgeID11_1" nVehContrib="0" flow="0.00" occupancy="0.00" speed="-1.00" harmonicMeanSpeed="-1.00" length="-1.00" nVehEntered="0"/>
    <interval begin="30600.00" end="31100.00" id="e1Detector_#EdgeID11_2" nVehContrib="8" flow="57.60" occupancy="0.29" speed="27.61" harmonicMeanSpeed="27.40" length="5.00" nVehEntered="8"/>
    <interval begin="30600.00" end="31100.00" id="e1Detector_#EdgeID27_0" nVehContrib="4" flow="28.80" occupancy="0.15" speed="26.56" harmonicMeanSpeed="26.12" length="5.00" nVehEntered="4"/>
    <interval begin="30600.00" end="31100.00" id="e1Detector_#EdgeID27_1" nVehContrib="5" flow="36.00" occupancy="0.19" speed="25.85" harmonicMeanSpeed="25.82" length="5.00" nVehEntered="5"/>
    <interval begin="30600.00" end="31100.00" id="e1Detector_#EdgeID59_0" nVehContrib="2" flow="14.40" occupancy="0.09" speed="22.27" harmonicMeanSpeed="22.26" length="5.00" nVehEntered="2"/>
    <interval begin="30600.00" end="31100.00" id="e1Detector_#EdgeID12_0" nVehContrib="5" flow="36.00" occupancy="0.18" speed="28.59" harmonicMeanSpeed="28.19" length="5.00" nVehEntered="5"/>